24
Properties=species:S:1:pos:R:3:y_force:R:3 y_energy=-15553.699713675574 configuration_id=CO_2521909107835771727970023 source_name=rmd17_azobenzene pbc="F F F"
N        0.47763180       0.49012869       0.33855469      -1.41448372       1.80360118       2.10547515
N       -0.39699754      -0.05723462      -0.34726108      -0.94075093      -1.43478448      -1.80518092
C       -1.80666604       0.13361233      -0.11980061       2.07465970       0.03042921      -0.63265181
C       -2.36520282       0.60980614       1.03420985       0.11860217      -0.22351959       0.00410163
C       -3.73414176       0.56189589       1.15701984      -1.08300633       0.67450654       1.68804397
C       -4.59426200       0.04220033       0.19954266      -0.21401119      -1.87752190      -1.91432930
C       -4.00290369      -0.59943076      -0.95293121      -0.15718194       2.70299669       1.55949899
C       -2.63637289      -0.37575546      -1.11224829      -0.22199889      -1.81201666      -1.03935388
C        1.79175252       0.13700701       0.17561293       0.34305975      -1.20964566      -2.01419080
C        2.22222239      -0.95894855      -0.62279743      -0.41196635       1.04450169       0.96540010
C        3.55236559      -1.21232995      -0.74502344       2.86565543      -2.14516290      -2.04713990
C        4.59313902      -0.42218768      -0.19307243      -1.08583922       1.28701175       0.94210811
C        4.10701878       0.67679734       0.54759365       2.13500736       0.58736470      -0.22947277
C        2.77242935       0.97900474       0.66002954      -0.49891340       0.50939517       1.42058140
H       -1.69815947       0.86048746       1.83109224       0.49326536       0.62019553       0.95614983
H       -4.05031328       0.92271418       2.13994695      -0.80690171       0.13569404       0.12555803
H       -5.70237863      -0.11190154       0.16914022       0.47924317       0.64406977       1.01733669
H       -4.71083704      -0.95426536      -1.69484916       0.15503722      -0.57638774      -0.59065664
H       -2.11484199      -0.84884593      -1.93399173       0.36106683      -0.08967088      -0.75707136
H        1.54238134      -1.53567588      -1.20619975      -1.07014592      -0.69545317      -0.30765139
H        3.79921332      -2.07953579      -1.45691423       0.02591970       0.88361207       0.88268909
H        5.70428749      -0.37042009      -0.23420987      -0.47046620      -1.18127770      -0.57986881
H        4.89285535       1.37207021       0.94454883      -0.63937015      -0.22094520       0.00257985
H        2.41628958       1.83370537       1.22759733      -0.03648061       0.54300741       0.24804478
24
Properties=species:S:1:pos:R:3:y_force:R:3 y_energy=-15553.322298171079 configuration_id=CO_7871196515429528272653148 source_name=rmd17_azobenzene pbc="F F F"
N        0.48294043       0.43280329       0.39789630      -2.20568174      -0.23401154       0.28151653
N       -0.43551741      -0.31325825      -0.09081969       1.66238523      -0.75682366      -0.00874011
C       -1.74111848      -0.05201461       0.13791300      -2.23688465      -1.24001780      -2.74201071
C       -2.34769644       0.89963022       0.94665467       1.16318901       0.63020170       1.20408910
C       -3.68203727       1.11133786       0.82949343      -3.16882976      -0.37044174      -0.68278339
C       -4.52100850       0.36880513      -0.07089597       0.14325545       1.47819931      -1.63411559
C       -4.00071815      -0.66919462      -0.97356057       2.50598939       2.61812055       4.04208239
C       -2.59049286      -0.87968033      -0.79791010      -1.19063014       1.92509019       1.98765896
C        1.74395002      -0.01999301       0.15431731       2.85957812       0.87413837       0.29580076
C        2.20796289      -0.86447947      -0.91960955      -0.99235390       0.91645981       0.69641975
C        3.58637469      -0.94530167      -1.13813394       0.41336750      -0.88452573      -0.47129240
C        4.53617312      -0.31643953      -0.24655707      -0.44357832      -0.47333853      -1.61590678
C        4.07675112       0.49883622       0.80427312      -0.44629089      -0.94568112      -0.25700898
C        2.70022179       0.66636926       1.00650361      -0.03595056      -1.08653511      -2.34814905
H       -1.82062920       1.52311895       1.68382366       0.50775841      -0.17283846      -0.16985172
H       -4.23778984       1.87394333       1.42878016       0.57602295      -0.19117753      -0.17723032
H       -5.46716095       0.99605539      -0.31195198       0.62244777      -1.73182148       0.45868124
H       -4.70231130      -1.29532303      -1.43407983      -0.97956847      -1.19796761      -1.57356966
H       -2.00895149      -1.65502467      -1.22629806       0.58198277      -1.13029678      -1.03016357
H        1.38358533      -1.23094351      -1.58488496       0.78224796      -0.14871627       0.23333488
H        3.90611880      -1.57995209      -2.05135757      -0.03465739       1.00197178       1.27586571
H        5.59621897      -0.37276816      -0.60320385      -0.37832259       0.03095783       0.74223866
H        4.74874855       0.95881755       1.50835117       0.76525456       0.60012694       0.26779749
H        2.32017002       1.52935363       1.51170374      -0.47073071       0.48892688       1.22533690
24
Properties=species:S:1:pos:R:3:y_force:R:3 y_energy=-15553.239223635841 configuration_id=CO_3448871625859648812752938 source_name=rmd17_azobenzene pbc="F F F"
N        0.27741426       0.02401682      -0.53265801       1.35088233       0.05904626       1.55972545
N       -0.37646613       0.27747286       0.55021026       1.22395442      -0.84157581      -0.85501070
C       -1.70899676       0.01534359       0.32790420      -1.15983552       1.71932772      -0.61020880
C       -2.60499433       0.43740129       1.38339722       0.91471445       0.03976803      -2.12947352
C       -3.92999446       0.57072497       1.06160836       0.07872389      -1.76842736      -1.68449441
C       -4.40352562       0.05376526      -0.16541837      -0.22274985       0.65050170       0.24156580
C       -3.54830540      -0.31541937      -1.19073938       1.54760295      -0.88602839      -0.56603833
C       -2.12899711      -0.26817123      -1.01952315      -4.66478511       0.17022725       3.84370305
C        1.66059676       0.02856811      -0.29919622       2.18427736      -0.83815912      -1.17315764
C        2.43264510      -0.95203291      -1.01890987       1.64634433       2.01271118       1.89784251
C        3.83137443      -1.14547396      -0.71502432      -0.87136636      -2.09198009      -2.27038536
C        4.44733651      -0.34730172       0.17799974      -0.34302920       2.04477505       3.53142218
C        3.69879858       0.72230394       0.85106581       0.85887826      -1.98735861      -1.87571606
C        2.37291606       0.90500899       0.58251530      -0.83501981      -1.86754185      -1.18233334
H       -2.20501286       0.91663864       2.25492923       0.61934964       0.00706251       0.97355199
H       -4.65462832       0.91492848       1.72149594      -1.50885339       0.97196865       1.79344964
H       -5.47505455       0.02857144      -0.34386524      -0.54200808      -0.01363122      -0.05532876
H       -3.94466342      -0.77381046      -2.11897455      -0.05837099       0.43419606       0.03853775
H       -1.50662278      -0.52476755      -1.78591643       2.15976045      -0.69114379      -2.18172482
H        1.97900334      -1.46354595      -1.79792307      -1.23244934      -1.56224117      -1.71158119
H        4.50486929      -1.97851978      -1.18260331      -1.51229394       1.07958398       0.44880260
H        5.34842308      -0.67955090       0.72272736       0.49786701       0.34833149      -0.68588728
H        4.21535226       1.33856538       1.53243974       0.79957123       1.04247741       1.24896688
H        1.69852738       1.55048415       1.04401897      -0.93116483       1.96811020       1.40377235
24
Properties=species:S:1:pos:R:3:y_force:R:3 y_energy=-15553.448118622446 configuration_id=CO_4483300511618503691292878 source_name=rmd17_azobenzene pbc="F F F"
N        0.35957193       0.11339741       0.31310030      -0.21670596      -1.01579563      -0.33303317
N       -0.36533203      -0.28898542      -0.66831597      -0.30801834       0.21667398       1.43270101
C       -1.73210026      -0.02331679      -0.34414388      -0.94224196       0.79850407      -0.60976231
C       -2.19129954       1.18937230       0.17282248      -1.94957285       0.00066622       2.46418834
C       -3.53759563       1.34831003       0.77905195       1.30771001      -2.99450561      -3.39888365
C       -4.50497471       0.29993272       0.51004180       2.64331973       0.83491640      -0.46473053
C       -4.02332518      -0.83128319      -0.25602802      -3.42973288       0.79495436       2.15698818
C       -2.75593634      -0.95722658      -0.63538370       3.30152559       0.72311367      -0.61951070
C        1.75395538      -0.15557553       0.18127311      -2.08733072       0.84713073      -1.33551336
C        2.29863295      -0.25857462      -1.08323670       1.03244146      -0.72451008      -1.38802166
C        3.66940340      -0.21258669      -1.25309132       1.57141260       0.39473317      -1.63535687
C        4.53702652      -0.12622638      -0.12668526       0.59835967      -0.01424160       0.09065114
C        3.93488188      -0.03115127       1.16251080       0.82084331      -1.23060602      -0.30387814
C        2.54991939      -0.06569761       1.29021107       0.53126642       0.52022502       0.45191456
H       -1.49333579       1.99063499       0.33422755       0.70361673       0.71495509       0.06941593
H       -3.75775127       2.32593347       1.12468968      -0.64305578       1.19250442       0.84843032
H       -5.54595223       0.45156527       0.76359525      -0.59992820      -0.22033250       0.32931674
H       -4.63889917      -1.72702498      -0.40860565      -0.59289371       0.22805723      -0.26808956
H       -2.45579143      -1.72857963      -1.28050145       0.50796703      -1.95696323      -0.86253560
H        1.77541552      -0.48832633      -2.01555289      -0.90722786       0.43640751       0.18791814
H        3.99415085      -0.16382732      -2.39092130       0.03846756      -0.34607077       2.24268676
H        5.68008662      -0.18780229      -0.22326936      -1.42230424       0.23501453       0.03739341
H        4.52481351      -0.17834809       2.08483455       0.21925948       0.49819005      -0.17294758
H        2.01413936       0.04884494       2.21337751      -0.17717720       0.06697894       1.08065865
24
Properties=species:S:1:pos:R:3:y_force:R:3 y_energy=-15553.532120309577 configuration_id=CO_1603424372183216376809485 source_name=rmd17_azobenzene pbc="F F F"
N        0.38986261       0.39831386       0.68253211       1.84025956       0.72174167       0.23204665
N       -0.34989983      -0.25186877      -0.06540009      -1.92434884      -1.48269026      -1.12465110
C       -1.76847378      -0.23580278       0.10966762       0.66436221       1.17536036       0.61078946
C       -2.48376248       0.24372464       1.22896334      -1.48556969      -0.17479991      -0.34818494
C       -3.88410432       0.51461278       1.10471513       1.96750439      -0.80153880      -1.26521286
C       -4.55434650       0.32679397      -0.12474486      -0.72583610       0.33906102       0.39600854
C       -3.80697472      -0.22126761      -1.23132258      -0.70803800       0.77144033       1.73673871
C       -2.46643391      -0.48578563      -1.08395759       0.82424447      -0.18391092       0.87574084
C        1.77094528       0.24029706       0.23385149      -0.01147951      -2.70149959      -0.84343287
C        2.21013193      -0.92259219      -0.60448578      -3.35702182       2.17177609       0.81082886
C        3.48510834      -1.07081192      -1.01938957       2.16382351      -0.37397444      -0.44726919
C        4.52544359      -0.26089275      -0.50167270      -0.78066499       0.41838120       1.38378423
C        4.13767109       0.68835971       0.51330511      -0.54261979      -0.89895291      -2.81298114
C        2.78017298       1.02846082       0.72969390       0.57456560       1.26767063       3.28400269
H       -2.06841154       0.36187332       2.21992705       0.75339576       0.23590506       0.39963297
H       -4.38010145       0.90959744       1.96723492      -0.71419286       0.34046669       0.78925473
H       -5.65671202       0.68147527      -0.01278390       1.45205648      -0.84174787      -1.16758308
H       -4.09038821      -0.43304164      -2.22795967      -1.56960244      -0.06895483      -1.31322421
H       -1.84481199      -0.88168677      -1.87697140       0.15889043      -0.13559577      -0.70214339
H        1.38157779      -1.53426276      -0.99699732       0.10846333      -0.13967622       0.13223287
H        3.79147053      -1.87889227      -1.71179036      -0.31825899       0.03994600       0.04192050
H        5.56199389      -0.51765947      -0.82230652      -0.27716967       0.52643444       0.44157898
H        4.85649788       1.31274616       0.94909149       1.59445298       1.07153201       0.99354643
H        2.54443872       1.79063002       1.62746090       0.31278398      -1.27637412      -2.10342377
24
Properties=species:S:1:pos:R:3:y_force:R:3 y_energy=-15553.04404441299 configuration_id=CO_5875506421977626077063557 source_name=rmd17_azobenzene pbc="F F F"
N        0.43323480       0.37464599       0.40126776      -3.61733678       0.60501065       0.76134273
N       -0.36262408      -0.55243377       0.06786410      -0.53422360      -0.41020792      -0.43964032
C       -1.73465694      -0.30014385       0.14519202      -1.27579377      -0.65136183      -0.60939078
C       -2.37607789       0.36621438       1.23395462      -1.50996683      -0.01931670      -3.19818934
C       -3.71340835       0.86606372       1.06903052       1.23834355      -1.60884890      -2.39865189
C       -4.35971693       0.59257352      -0.16790094      -0.08216105      -1.19519051      -0.47513054
C       -3.78759657      -0.34113576      -1.10465938      -0.98053058       2.28762481       1.26597874
C       -2.52101707      -0.78836059      -1.00819542       3.38385946      -1.25761047       1.15454964
C        1.71787773       0.10559941       0.13627926       0.78701412      -2.02663350      -0.16235494
C        2.10888047      -1.06206174      -0.52206775       5.38950309       1.75428552      -0.15018082
C        3.54991805      -1.10027018      -0.81389194      -3.00807687       0.25042567       1.53700877
C        4.47865416      -0.20472038      -0.31080455      -3.68220042       1.98875184       0.19659633
C        3.95385581       0.97456227       0.31451734       2.20050570      -0.79043019       0.95626147
C        2.58976794       1.04934152       0.61600025       1.53808380       2.19901173      -0.27351711
H       -1.70397242       0.59102825       1.99304099       1.12454019       0.79216450       2.22790759
H       -4.18921604       1.49155408       1.76282575      -0.74397308       1.10304900       1.58312773
H       -5.36378376       0.90756942      -0.57731119       0.59111291       0.36592395       1.24707033
H       -4.33868820      -0.42090801      -1.99588761      -1.04627174      -0.80166329      -1.63827451
H       -2.03230568      -1.53815280      -1.74822984      -0.60170997       1.35558082       0.98861063
H        1.48952093      -1.86743180      -0.74576294      -1.53689312      -1.43281075      -0.76930462
H        3.92188618      -1.87527928      -1.38681237       0.82188234      -2.35772353      -1.49173740
H        5.47460190      -0.24183067      -0.59860263       2.48582880      -0.27120667      -0.46016050
H        4.82458953       1.62569611       0.65371385      -1.49877153       0.15373002      -0.05619367
H        2.05052719       1.91962541       1.04016649       0.55723523      -0.03255433       0.20427241
24
Properties=species:S:1:pos:R:3:y_force:R:3 y_energy=-15553.502553965844 configuration_id=CO_3043283997348489768643232 source_name=rmd17_azobenzene pbc="F F F"
N        0.41845276       0.14713842       0.81952436       1.96101549       0.73885890       0.65665337
N       -0.31082496      -0.17672840      -0.11396763      -1.88292821      -0.38370360      -2.72025095
C       -1.72789988       0.05094167      -0.07816554      -0.19137077      -0.79734065       2.46237294
C       -2.41400057       0.23036118       1.19662470       0.71166223       0.08764074      -1.91134723
C       -3.80120142       0.33036332       1.11584403      -0.10950123      -0.95318864       1.03800420
C       -4.50381663       0.20354296      -0.10155115      -0.68544921       1.17822210       1.60452497
C       -3.87080899      -0.01998923      -1.27994110       0.58176962       0.42640155       0.65446099
C       -2.50924516      -0.15708475      -1.22634796       2.05740133      -0.43610695      -0.55503992
C        1.85905249      -0.02683920       0.39371769      -2.85112073       0.60317056       1.53859725
C        2.17510955      -1.03901252      -0.50452341       0.29121052       1.02249782       0.55651805
C        3.45954246      -1.15857352      -0.89732350       3.66044380      -0.19559232      -1.71182745
C        4.44880716      -0.20984149      -0.44635983      -0.28835767      -0.86530560      -0.62071654
C        4.04792118       0.85691074       0.30236430      -2.86235465      -1.10933093       1.10297706
C        2.73395157       0.94704933       0.84060768       0.86613643      -0.12996197      -0.99555791
H       -1.76169577       0.23101672       2.09085534      -0.46068619       0.16198522       0.02441458
H       -4.39933434       0.27820056       2.04247972       0.02537108       0.50368167       0.04273873
H       -5.55102235       0.46205603      -0.08286100      -0.94781432      -0.21338523       0.03800296
H       -4.35594566       0.05287167      -2.21109179      -0.98916897      -0.36940924      -1.57191376
H       -2.05023312      -0.52924482      -2.13264085       0.86431696       0.17266476      -0.57542399
H        1.39373273      -1.49525501      -1.03332237      -1.61912261      -1.32084069      -0.54493913
H        3.77821561      -1.87364163      -1.72271570      -0.38971160       0.37468720       0.93946579
H        5.52912075      -0.17084999      -0.64022071       0.01144645      -0.76981591      -0.65016627
H        4.73115884       1.53023791       0.64737574       2.41263376       2.43459283       0.86873391
H        2.41282305       1.83250203       1.40106666      -0.16582156      -0.16042158       0.32971824
24
Properties=species:S:1:pos:R:3:y_force:R:3 y_energy=-15553.310325034066 configuration_id=CO_1130189902628143838371502 source_name=rmd17_azobenzene pbc="F F F"
N        0.39902390       0.43311228       0.32218330       1.57706965      -0.16550167      -0.66226722
N       -0.43245147      -0.28653261      -0.28396446       0.37419735       0.43955115      -0.42037627
C       -1.75972156       0.08552129      -0.10835840      -0.43588959       0.22249269       3.93840892
C       -2.35277074       0.60074511       1.10614908       1.34056794      -0.40518393      -1.10491963
C       -3.73160819       0.74055553       1.14643314       0.66676079      -1.09887358      -1.08471601
C       -4.53972766       0.19728080       0.12507500      -0.00741265       1.04050573       0.87458158
C       -3.91223493      -0.27147969      -1.04205045      -4.09671499      -0.02856460       1.27341324
C       -2.60251754      -0.37279044      -1.06685073       4.87915923      -0.51916958      -3.38755440
C        1.79470748       0.08365726       0.01442091      -1.38069551      -0.56472455       1.82775181
C        2.21903234      -1.14987561      -0.57248333       0.95921109       1.70126171      -1.08118650
C        3.63486175      -1.29653576      -0.76004718      -1.37059293      -1.36773509       1.13977109
C        4.52544191      -0.46782950      -0.10503864       0.07789507       3.05745882       0.13334601
C        4.05740820       0.75204852       0.51878240      -1.26071688      -2.39761219      -0.20128531
C        2.69032717       0.96805883       0.67312996      -0.25697273       0.48495036      -1.57243534
H       -1.71881248       0.69976645       1.99662795       0.07638080       0.55037815       0.01825473
H       -4.13153274       1.14827458       2.02650368      -1.10752668       0.60233562       1.65996022
H       -5.61820609       0.17476316       0.38815086       0.13031169      -0.06559486      -0.80909136
H       -4.52421345      -0.70427506      -1.78644208      -0.90009582      -0.56772662      -1.40645308
H       -1.86081167      -0.69177197      -1.88009459      -1.75365416      -0.37454661       0.00681368
H        1.48929787      -1.74816221      -1.15003753       0.04575695      -0.15575425       0.51018260
H        4.05525149      -2.24637175      -1.12275465      -0.18427746       0.00792429      -0.60800434
H        5.59578983      -0.51129412      -0.30699739       0.46879647      -0.52642693       0.23906911
H        4.58976138       1.43048730       1.11473700       2.07354251       1.15430631       0.56890922
H        2.31156974       1.96840571       1.03375206       0.08489989      -1.02375026       0.14782728
24
Properties=species:S:1:pos:R:3:y_force:R:3 y_energy=-15553.087987068739 configuration_id=CO_8348540622813090777191801 source_name=rmd17_azobenzene pbc="F F F"
N        0.49230253       0.43948182       0.24569372      -1.83441827      -0.34007069      -1.23132135
N       -0.38271009      -0.09610881      -0.52842109      -1.33538516       0.89839118       0.52507746
C       -1.92466806       0.16490295      -0.23024460       1.76538333      -1.39502972      -1.90415410
C       -2.45196701       0.97163634       0.81650393       3.09285170       0.86877356      -0.91928443
C       -3.75338190       0.83825022       1.11871589      -2.95298625      -1.32445391       1.22299144
C       -4.58098109      -0.09147878       0.41697597      -2.08489023       1.76889206       2.35722196
C       -4.15295539      -0.74431438      -0.67414065       2.05895042       0.11017013      -2.78864374
C       -2.82844557      -0.60350820      -1.14894137       2.45820343       1.08261927       2.99786887
C        1.86431438       0.14890345      -0.04663804      -0.12423988       0.94166537       2.47835990
C        2.41553434      -0.87260823      -0.79723770      -0.64856673      -1.36477349      -2.92084998
C        3.79481244      -1.10217565      -0.89490202       0.73533129      -0.13070523       1.28648262
C        4.67319863      -0.40133479      -0.01999894      -4.60267131       0.23986024      -0.74385661
C        4.07551544       0.51532801       0.85695167       2.47269772       0.74669732       0.79730496
C        2.75300344       0.84343807       0.85698859      -0.96629983      -1.60663163      -1.62866141
H       -1.85833061       1.80446360       1.31664138      -0.10155889      -1.26347341      -0.32956932
H       -4.12125668       1.28989153       2.05541794      -0.28921133       0.37573163      -0.29205708
H       -5.70038520      -0.20219707       0.60847131       1.19714033       0.31644029       0.36712877
H       -4.89541538      -1.10469079      -1.33965311      -0.98263199      -1.25721246      -0.83576538
H       -2.31588862      -1.11751821      -1.99134994      -0.48773044       0.11030357       0.21587030
H        1.78173389      -1.49101221      -1.52392810       0.30045590       0.72513928       1.10066111
H        4.14058533      -1.97927461      -1.46560862       0.11322522       0.25622516      -0.27598424
H        5.67964003      -0.48902373       0.04855374       3.73824929      -0.82324025      -0.08527589
H        4.77906215       1.00799632       1.58899653      -0.61967627      -0.18895008      -0.41422506
H        2.36983192       1.47730654       1.60469870      -0.90222202       1.25363163       1.02068124
24
Properties=species:S:1:pos:R:3:y_force:R:3 y_energy=-15553.079736985941 configuration_id=CO_1036496254918055303441688 source_name=rmd17_azobenzene pbc="F F F"
N        0.38871457       0.72981195       0.11544575       0.14966100      -1.18513281      -0.25820938
N       -0.38044901      -0.19587132      -0.33248999       0.39142308       0.98558264       0.97535438
C       -1.75464000      -0.08119148      -0.01140094       1.03168880      -1.74105179      -2.38102035
C       -2.26398508       0.57562738       1.07509286      -0.79646760       0.53476219       1.65528323
C       -3.68759795       0.64325991       1.19412852       3.70236831       1.24790939       1.22659684
C       -4.39863331       0.19767257       0.16082334      -4.53371232      -0.40646012      -1.93540185
C       -3.93290536      -0.56590252      -0.93548676      -0.63632381      -1.33842889      -0.25480951
C       -2.55194343      -0.84210800      -0.96973244      -0.61190306       2.43856899       0.88189138
C        1.78648882       0.35432783      -0.03364555      -2.45371274      -1.13170199      -1.86634207
C        2.15708409      -0.79990448      -0.76122931       0.13365439      -0.78605633      -0.41045320
C        3.48985746      -1.25443090      -0.69609231      -3.02656650      -2.88438823      -3.38695163
C        4.34724737      -0.63533871       0.11820222       0.76238943       3.44861023       1.41170389
C        4.07559808       0.68264537       0.63822658      -3.21353019      -2.94342596      -2.18919140
C        2.75362036       1.16573325       0.47199166       1.54054198       1.66917521       1.53497914
H       -1.55717053       1.01568349       1.81742488      -0.37927734      -0.09371754      -0.35045954
H       -4.11768736       1.22996268       1.98986464      -0.42942954       0.25097213       0.63361639
H       -5.50400758       0.52264924       0.20141697       1.10053395      -0.85555963      -0.28896034
H       -4.75961524      -1.05035732      -1.59679306       1.57407334       0.83280362       0.57501878
H       -1.95663624      -1.21091782      -1.79917758      -0.08206041      -0.80498443      -0.37488733
H        1.41238430      -1.38062452      -1.35509589       0.16727676       0.46192078       0.43934186
H        3.78817291      -2.20098354      -1.39478540      -0.51425749       1.96019372       1.85858428
H        5.21052033      -1.19652276       0.19526321       3.00085233      -0.62868264       0.80530932
H        4.67835538       1.32851857       1.13614237       2.85096785       1.76702482       1.77794743
H        2.45022886       2.19110251       0.83281680       0.27180980      -0.79793344      -0.07894028
24
Properties=species:S:1:pos:R:3:y_force:R:3 y_energy=-15553.236855374764 configuration_id=CO_1344251357359319976557041 source_name=rmd17_azobenzene pbc="F F F"
N        0.47464902       0.86469629       0.20834455       0.53080814      -0.35515329       0.31358344
N       -0.28546100      -0.00286621      -0.29017244      -1.78863700      -0.65327833       0.27989895
C       -1.78026635       0.10704178      -0.08952532       1.39058691       0.59569796      -0.07675052
C       -2.48455101       1.31621388       0.11053979      -1.55484267      -4.16683011      -0.55738055
C       -3.87561558       1.20470952       0.14729758       0.73009570      -0.54880515       0.05966718
C       -4.52405268      -0.03981885       0.10013121      -1.75619004       1.53372774       0.03797252
C       -3.86326391      -1.23366705      -0.04239852      -0.17298198      -0.06736188       0.60630782
C       -2.49757402      -1.11839998      -0.13732526       2.25781354       0.06044710      -0.59091946
C        1.88687183       0.43071463       0.06631097      -0.55006211      -0.03455352       0.63484743
C        2.32742866      -0.12718412      -1.16710001       0.69754142      -0.51470322       0.06323726
C        3.61916485      -0.73524999      -1.21892923      -1.15517504      -1.61774774      -2.16187976
C        4.33455135      -0.89217617      -0.04648250      -0.87958274       1.06473627      -1.13135428
C        3.94915645      -0.25379358       1.08835676      -0.46550022       2.46816039       3.52678838
C        2.70714167       0.46213263       1.27794935      -0.19173211      -0.24731279      -2.80623399
H       -2.04022607       2.20768120       0.26636838       2.00297590       3.49727068       0.33561497
H       -4.39804668       2.12840421       0.24696261      -1.05752808       0.91217780       0.18601933
H       -5.62343838      -0.03800891       0.17771749      -0.04867993       0.00175997       0.00732348
H       -4.44644760      -2.15964744       0.05777979       0.35737668      -0.25089937      -0.33335944
H       -1.83431855      -1.95334512      -0.30811759       0.29888768      -0.88445426      -0.04316235
H        1.65398495      -0.16441490      -2.06255860       0.30931679       0.21146559       0.66019702
H        3.99521766      -1.33073868      -2.16586834      -0.74179181       1.40672917       1.38063092
H        5.33518432      -1.17382811      -0.01966653       2.19432811      -1.33559769      -0.37349421
H        4.82414062      -0.14614106       1.79721445      -1.15550208      -0.15700473       0.21901455
H        2.30016637       1.13364758       2.08926794       0.74847487      -0.91847052      -0.23656871
24
Properties=species:S:1:pos:R:3:y_force:R:3 y_energy=-15553.436772693269 configuration_id=CO_5103767308940445483342615 source_name=rmd17_azobenzene pbc="F F F"
N        0.43559256       0.42610303       0.34625563      -2.09124491       0.31157242       0.11780199
N       -0.40637033      -0.09029958      -0.48342814       1.27663468       0.35568222       0.34955595
C       -1.78886219       0.09009107      -0.22089774       1.14726283       0.80449413       2.61467435